{
  "title": "Show #54 - Thursday, November 22, 1984",
  "date": {
    "day": 22,
    "month": "November",
    "year": 1984
  },
  "clues": [
    {
      "category": "FOREIGN CITIES",
      "text": "Name of French national anthem comes from the name of this French city",
      "answer": "Marseille"
    },
    {
      "category": "POTENT POTABLES",
      "text": "French word for a drink or wine taken as an appetizer",
      "answer": "aperitif"
    },
    {
      "category": "ETIQUETTE",
      "text": "At the theater they should still take the aisle seat",
      "answer": "men"
    },
    {
      "category": "TELEVISION",
      "text": "Traded his female finery on \"M*A*S*H\" for a suit & tie on \"AfterMASH\"",
      "answer": "Jamie Farr"
    },
    {
      "category": "FLAGS",
      "text": "Since '64 it's waved for Richard Petty 7 times at Daytona",
      "answer": "the checkered flag"
    },
    {
      "category": "CAT\"EGORY",
      "text": "Chapeau-ed Dr. Seuss' hero",
      "answer": "the Cat in the Hat"
    },
    {
      "category": "FOREIGN CITIES",
      "text": "Noted for its Harbour Bridge & shell-shaped opera house",
      "answer": "Sydney"
    },
    {
      "category": "POTENT POTABLES",
      "text": "It's what makes a whiskey sour, sour",
      "answer": "lemon juice"
    },
    {
      "category": "ETIQUETTE",
      "text": "2-letter title many modern women prefer",
      "answer": "Ms."
    },
    {
      "category": "TELEVISION",
      "text": "Meredith Baxter Birney is hippie mom to straight-laced Michael Fox in this series",
      "answer": "Family Ties"
    },
    {
      "category": "FLAGS",
      "text": "Monochromatic flag appropriate for Lee at Appomattox & Napoleon at Waterloo",
      "answer": "a white flag"
    },
    {
      "category": "CAT\"EGORY",
      "text": "Fingered game with a loop of string",
      "answer": "cat's cradle"
    },
    {
      "category": "FOREIGN CITIES",
      "text": "Its baseball team is named for '67 World's Fair held there",
      "answer": "Montreal"
    },
    {
      "category": "ETIQUETTE",
      "text": "Standard tip for a flight attendant",
      "answer": "nothing"
    },
    {
      "category": "TELEVISION",
      "text": "Left his \"Prairie\" home for a \"Highway to Heaven\"",
      "answer": "Michael Landon"
    },
    {
      "category": "FLAGS",
      "text": "The only state flag with a picture of George Washington",
      "answer": "Washington"
    },
    {
      "category": "CAT\"EGORY",
      "text": "Felonious felines, Batman!  She's been played by 3 different actresses",
      "answer": "the Catwoman"
    },
    {
      "category": "FOREIGN CITIES",
      "text": "Black urban complex outside Johannesburg, acronym of South Western Townships",
      "answer": "Soweto"
    },
    {
      "category": "TELEVISION",
      "text": "Toothsome twosome who are \"Partners in Crime\" this season on NBC",
      "answer": "Lynda Carter & Loni Anderson"
    },
    {
      "category": "FLAGS",
      "text": "It bears the crosses of St. Andrew, St. George & St. Patrick",
      "answer": "the Union Jack (the flag of Great Britain)"
    },
    {
      "category": "FOREIGN CITIES",
      "text": "Chinese city that's a Portuguese colony",
      "answer": "Macau"
    },
    {
      "category": "TELEVISION",
      "text": "Though she lost her \"Hart\", she stars in miniseries \"Mistral's Daughter\"",
      "answer": "Stefanie Powers"
    },
    {
      "category": "FLAGS",
      "text": "System of signaling using handheld flags",
      "answer": "the semaphore"
    },
    {
      "category": "CHEMISTRY",
      "text": "Boiling point of H2O on the Celsius scale",
      "answer": "100 degrees"
    },
    {
      "category": "WORLD WAR II",
      "text": "Second A-bomb used in the war used on this city",
      "answer": "Nagasaki"
    },
    {
      "category": "WOMEN",
      "text": "Newsweek described her as proving gymnasts don't all have to be anorexic",
      "answer": "Mary Lou Retton"
    },
    {
      "category": "SPORTS",
      "text": "Number of games to win a normal set in tennis",
      "answer": "6"
    },
    {
      "category": "PRESIDENTS",
      "text": "Number of presidents born outside North America",
      "answer": "none"
    },
    {
      "category": "THE BIG TOP",
      "text": "Barnum's famous pachyderm he said died on railroad tracks to save a friend",
      "answer": "Jumbo"
    },
    {
      "category": "CHEMISTRY",
      "text": "Primary gas component in air",
      "answer": "nitrogen"
    },
    {
      "category": "WORLD WAR II",
      "text": "In '43 this country quit the Axis & declared war on Germany",
      "answer": "Italy"
    },
    {
      "category": "WOMEN",
      "text": "Molly Pitcher was awarded a pension for having fought in this war",
      "answer": "the Revolutionary War"
    },
    {
      "category": "SPORTS",
      "text": "Indoor sport dominated by Willie Mosconi from 1941-57",
      "answer": "billiards (pool)"
    },
    {
      "category": "PRESIDENTS",
      "text": "William Henry Harrison's grandson who was also a president",
      "answer": "Benjamin Harrison"
    },
    {
      "category": "CHEMISTRY",
      "text": "Chart of elements arranged by atomic number",
      "answer": "the periodic table"
    },
    {
      "category": "WORLD WAR II",
      "text": "It took 5 destroyers, 2 battleships, a cruiser & air assistance to sink this German battleship",
      "answer": "theBismarck"
    },
    {
      "category": "WOMEN",
      "text": "Earned law degree at age 54 after having founded an Eagle Forum & stopped ERA",
      "answer": "Phyllis Schlafly"
    },
    {
      "category": "SPORTS",
      "text": "Number of completed innings which make a baseball game official",
      "answer": "5"
    },
    {
      "category": "PRESIDENTS",
      "text": "When the Gregorian calendar was adopted his birth date changed from Feb. 11 to Feb. 22",
      "answer": "George Washington"
    },
    {
      "category": "CHEMISTRY",
      "text": "Sodium hydroxide used in making pretzels & unclogging drains",
      "answer": "lye"
    },
    {
      "category": "WORLD WAR II",
      "text": "Under Hitler Joseph Goebbels was minister of this",
      "answer": "propaganda"
    },
    {
      "category": "WOMEN",
      "text": "Largest American city to ever have a woman mayor",
      "answer": "Chicago"
    },
    {
      "category": "SPORTS",
      "text": "Though goaltending in hockey is essential, in this sport it's illegal",
      "answer": "basketball"
    },
    {
      "category": "PRESIDENTS",
      "text": "1st president to wear a beard",
      "answer": "Abraham Lincoln"
    },
    {
      "category": "CHEMISTRY",
      "text": "Neutral number on the pH scale",
      "answer": "7"
    },
    {
      "category": "WORLD WAR II",
      "text": "After betraying Norway to the Nazis, his name became synonymous with traitor",
      "answer": "(Vidkun) Quisling"
    },
    {
      "category": "WOMEN",
      "text": "Author of \"The Feminine Mystique\"; many consider her the founder of women's lib movement",
      "answer": "Betty Friedan"
    },
    {
      "category": "SPORTS",
      "text": "Length of a polo field",
      "answer": "300 yards"
    },
    {
      "category": "PRESIDENTS",
      "text": "\"Rough & Ready\" president whose son-in-law was pres. of the Confederacy",
      "answer": "President Zachary Taylor"
    }
  ]
}